n -t * -s 0  -x 476.84189699443147 -y 225.41022832757341 -Z 0 -z 30  -v circle -c black
n -t * -s 1  -x 87.134376907318085 -y 373.9781450359049 -Z 0 -z 30  -v circle -c black
n -t * -s 2  -x 313.35452306706202 -y 39.575350489269638 -Z 0 -z 30  -v circle -c black
n -t * -s 3  -x 428.64459144354078 -y 183.71871327223198 -Z 0 -z 30  -v circle -c black
n -t * -s 4  -x 200.51745800325529 -y 77.533328569276875 -Z 0 -z 30  -v circle -c black
n -t * -s 6  -x 378.31657979558992 -y 293.4052995841044 -Z 0 -z 30  -v circle -c black
n -t * -s 7  -x 78.587637552333831 -y 257.93947365970325 -Z 0 -z 30  -v circle -c black
n -t * -s 8  -x 485.91724829092493 -y 248.95362046032847 -Z 0 -z 30  -v circle -c black
V -t * -v 1.0a5 -a 0
W -t * -x 500 -y 400
A -t * -n 1 -p 0 -o 0x7fffffff -c 30 -a 1
A -t * -h 1 -m 1073741823 -s 0
n -t 0 -s 0 -S COLOR -c blue -o blue -i blue -I blue
n -t 0 -s 1 -S COLOR -c blue -o blue -i blue -I blue
n -t 0 -s 2 -S COLOR -c blue -o blue -i blue -I blue
n -t 0 -s 3 -S COLOR -c cyan -o cyan -i cyan -I cyan
n -t 0 -s 4 -S COLOR -c cyan -o cyan -i cyan -I cyan
n -t 0 -s 6 -S COLOR -c red -o red -i red -I red
n -t 0 -s 7 -S COLOR -c red -o red -i red -I red
n -t 0 -s 8 -S COLOR -c red -o red -i red -I red
n -t 0.000000 -s 0 -x 476.841897 -y 225.410228 -U -9.347441 -V 3.553218 -T 29.148947
n -t 0.000000 -s 1 -x 87.134377 -y 373.978145 -U -1.885879 -V -9.820563 -T 37.211571
n -t 0.000000 -s 2 -x 313.354523 -y 39.575350 -U 6.562469 -V 7.545462 -T 14.058903
n -t 0.000000 -s 3 -x 428.644591 -y 183.718713 -U -9.992583 -V -0.385080 -T 37.265207
n -t 0.000000 -s 4 -x 200.517458 -y 77.533329 -U 0.743129 -V 9.972350 -T 30.335069
n -t 0.000000 -s 6 -x 378.316580 -y 293.405300 -U -7.782793 -V 6.279183 -T 13.213494
n -t 0.000000 -s 7 -x 78.587638 -y 257.939474 -U 5.143728 -V -8.575667 -T 18.430199
n -t 0.000000 -s 8 -x 485.917248 -y 248.953620 -U -9.981469 -V 0.608499 -T 46.000426
n -t 1.000000 -s 0 -x 467.494456 -y 228.963446 -U -9.791792 -V -2.029976 -T 20.662527
n -t 1.000000 -s 1 -x 85.248498 -y 364.157582 -U -2.238857 -V -9.746154 -T 22.206236
n -t 1.000000 -s 2 -x 319.916992 -y 47.120813 -U -7.090816 -V 7.051264 -T 21.330737
n -t 1.000000 -s 3 -x 418.652009 -y 183.333633 -U -5.213361 -V -8.533514 -T 13.674822
n -t 1.000000 -s 4 -x 201.260587 -y 87.505678 -U -9.044418 -V 4.265971 -T 21.218171
n -t 1.000000 -s 6 -x 370.533787 -y 299.684482 -U -9.208564 -V -3.899019 -T 38.611742
n -t 1.000000 -s 7 -x 83.731366 -y 249.363807 -U 7.802886 -V 6.254196 -T 11.377858
n -t 1.000000 -s 8 -x 475.935779 -y 249.562120 -U -9.862988 -V 1.649686 -T 18.753416
n -t 2.000000 -s 0 -x 457.702664 -y 226.933470 -U -0.945304 -V -9.955220 -T 17.720953
n -t 2.000000 -s 1 -x 83.009640 -y 354.411428 -U 9.864931 -V -1.638031 -T 22.926753
n -t 2.000000 -s 2 -x 312.826176 -y 54.172077 -U -4.840675 -V 8.750306 -T 10.244815
n -t 2.000000 -s 3 -x 413.438647 -y 174.800119 -U 3.765894 -V -9.263803 -T 2.457235
n -t 2.000000 -s 4 -x 192.216169 -y 91.771649 -U -7.152507 -V -6.988680 -T 12.511808
n -t 2.000000 -s 6 -x 361.325223 -y 295.785463 -U 6.290369 -V -7.773754 -T 19.020520
n -t 2.000000 -s 7 -x 91.534252 -y 255.618003 -U 9.933378 -V -1.152394 -T 12.059794
n -t 2.000000 -s 8 -x 466.072791 -y 251.211806 -U -7.354948 -V -6.775304 -T 30.342114
n -t 3.000000 -s 0 -x 456.757360 -y 216.978250 -U -9.998299 -V 0.184464 -T 22.755966
n -t 3.000000 -s 1 -x 92.874571 -y 352.773397 -U 1.732378 -V -9.848800 -T 20.976039
n -t 3.000000 -s 2 -x 307.985501 -y 62.922383 -U -5.018393 -V 8.649609 -T 30.451489
n -t 3.000000 -s 3 -x 417.204542 -y 165.536316 -U 8.530601 -V 5.218126 -T 8.309079
n -t 3.000000 -s 4 -x 185.063663 -y 84.782969 -U -9.667566 -V -2.556984 -T 8.313407
n -t 3.000000 -s 6 -x 367.615593 -y 288.011709 -U -9.997704 -V -0.214296 -T 27.168508
n -t 3.000000 -s 7 -x 101.467629 -y 254.465609 -U 9.196536 -V -3.927306 -T 37.972508
n -t 3.000000 -s 8 -x 458.717843 -y 244.436501 -U 1.393864 -V -9.902381 -T 12.826238
n -t 4.000000 -s 0 -x 446.759062 -y 217.162714 -U 5.581700 -V 8.297266 -T 5.581928
n -t 4.000000 -s 1 -x 94.606948 -y 342.924597 -U 6.412903 -V -7.672984 -T 37.014783
n -t 4.000000 -s 2 -x 302.967108 -y 71.571992 -U -8.757598 -V 4.827471 -T 18.423717
n -t 4.000000 -s 3 -x 425.735143 -y 170.754442 -U -7.924397 -V 6.099502 -T 34.109287
n -t 4.000000 -s 4 -x 175.396097 -y 82.225985 -U 7.086109 -V -7.055994 -T 3.616308
n -t 4.000000 -s 6 -x 357.617889 -y 287.797413 -U 1.218845 -V -9.925443 -T 28.436394
n -t 4.000000 -s 7 -x 110.664165 -y 250.538303 -U 6.058842 -V 7.955529 -T 10.507464
n -t 4.000000 -s 8 -x 460.111707 -y 234.534121 -U -9.557705 -V -2.941135 -T 30.450246
n -t 5.000000 -s 0 -x 452.340762 -y 225.459980 -U -9.284510 -V 3.714548 -T 20.597383
n -t 5.000000 -s 1 -x 101.019851 -y 335.251613 -U -8.551943 -V -5.183075 -T 10.495117
n -t 5.000000 -s 2 -x 294.209510 -y 76.399463 -U 9.979860 -V -0.634338 -T 11.082041
n -t 5.000000 -s 3 -x 417.810746 -y 176.853944 -U -3.931501 -V -9.194743 -T 11.994570
n -t 5.000000 -s 4 -x 182.482206 -y 75.169991 -U 8.936909 -V 4.486831 -T 34.252446
n -t 5.000000 -s 6 -x 358.836734 -y 277.871970 -U 7.264117 -V -6.872598 -T 13.349088
n -t 5.000000 -s 7 -x 116.723006 -y 258.493832 -U 9.690831 -V 2.467345 -T 22.905036
n -t 5.000000 -s 8 -x 450.554002 -y 231.592986 -U -1.277336 -V 9.918085 -T 12.973189
n -t 6.000000 -s 0 -x 443.056252 -y 229.174528 -U -8.329197 -V -5.533939 -T 34.212710
n -t 6.000000 -s 1 -x 92.467908 -y 330.068538 -U -3.287508 -V -9.444167 -T 9.344371
n -t 6.000000 -s 2 -x 304.189370 -y 75.765125 -U 0.223892 -V 9.997493 -T 23.352927
n -t 6.000000 -s 3 -x 413.879245 -y 167.659201 -U -9.438326 -V 3.304241 -T 27.033026
n -t 6.000000 -s 4 -x 191.419116 -y 79.656822 -U 9.783133 -V 2.071306 -T 20.097115
n -t 6.000000 -s 6 -x 366.100851 -y 270.999371 -U -9.888127 -V 1.491624 -T 34.259961
n -t 6.000000 -s 7 -x 126.413837 -y 260.961177 -U 9.940637 -V -1.087995 -T 34.354244
n -t 6.000000 -s 8 -x 449.276666 -y 241.511071 -U -8.396123 -V -5.431862 -T 27.427381
n -t 7.000000 -s 0 -x 434.727055 -y 223.640589 -U -0.787287 -V 9.968961 -T 11.943024
n -t 7.000000 -s 1 -x 89.180400 -y 320.624371 -U 3.752673 -V -9.269166 -T 29.897959
n -t 7.000000 -s 2 -x 304.413262 -y 85.762618 -U -1.476053 -V 9.890464 -T 16.444812
n -t 7.000000 -s 3 -x 404.440919 -y 170.963442 -U -9.418878 -V -3.359275 -T 14.091854
n -t 7.000000 -s 4 -x 201.202248 -y 81.728128 -U 2.572143 -V 9.663544 -T 2.394746
n -t 7.000000 -s 6 -x 356.212724 -y 272.490996 -U -9.999903 -V -0.043946 -T 17.141997
n -t 7.000000 -s 7 -x 136.354475 -y 259.873182 -U 8.163293 -V -5.775867 -T 28.494141
n -t 7.000000 -s 8 -x 440.880544 -y 236.079209 -U -9.993499 -V -0.360532 -T 41.653206
n -t 8.000000 -s 0 -x 433.939768 -y 233.609550 -U -6.850662 -V -7.284809 -T 29.118690
n -t 8.000000 -s 1 -x 92.933073 -y 311.355205 -U 8.005929 -V -5.992087 -T 36.213209
n -t 8.000000 -s 2 -x 302.937209 -y 95.653081 -U 4.852959 -V 8.743500 -T 27.946990
n -t 8.000000 -s 3 -x 395.022041 -y 167.604167 -U -9.474240 -V 3.199808 -T 27.521309
n -t 8.000000 -s 4 -x 203.774391 -y 91.391672 -U 1.933095 -V 9.811378 -T 21.639080
n -t 8.000000 -s 6 -x 346.212820 -y 272.447050 -U 3.899004 -V -9.208570 -T 7.575923
n -t 8.000000 -s 7 -x 144.517768 -y 254.097315 -U -0.785427 -V -9.969108 -T 18.887523
n -t 8.000000 -s 8 -x 430.887045 -y 235.718677 -U 8.701942 -V -4.927089 -T 7.113211
n -t 9.000000 -s 0 -x 427.089107 -y 226.324741 -U -3.603095 -V -9.328328 -T 20.807534
n -t 9.000000 -s 1 -x 100.939002 -y 305.363118 -U -8.684078 -V 4.958506 -T 10.239827
n -t 9.000000 -s 2 -x 307.790168 -y 104.396581 -U -7.376573 -V 6.751753 -T 41.616619
n -t 9.000000 -s 3 -x 385.547801 -y 170.803975 -U 0.129776 -V 9.999158 -T 22.507828
n -t 9.000000 -s 4 -x 205.707486 -y 101.203050 -U -4.077070 -V 9.131128 -T 27.594759
n -t 9.000000 -s 6 -x 350.111824 -y 263.238480 -U -6.833822 -V -7.300608 -T 14.467088
n -t 9.000000 -s 7 -x 143.732341 -y 244.128207 -U 7.518582 -V -6.593248 -T 33.801476
n -t 9.000000 -s 8 -x 439.588987 -y 230.791588 -U -9.780859 -V 2.082018 -T 15.638977
